TITLE     = "test surface"
VARIABLES = "X","Y","Z","CP","CFX","CFY","CFZ"
ZONE T="01"
 STRANDID=0, SOLUTIONTIME=0
 Nodes=15, Elements=19, ZONETYPE=FETriangle
 DATAPACKING=POINT
 DT=(SINGLE SINGLE SINGLE SINGLE SINGLE SINGLE SINGLE )
 0.000000000E+00 0.000000000E+00 0.000000000E+00 0.000000000E+00 2.000000030E-01 2.000000030E-01 0.000000000E+00
 0.000000000E+00 1.000000000E+00 0.000000000E+00 1.000000000E+00 1.041471004E+00 2.000000030E-01 5.000000000E+00
 0.000000000E+00 2.000000000E+00 0.000000000E+00 4.000000000E+00 1.109297395E+00 2.000000030E-01 1.000000000E+01
 0.000000000E+00 3.000000000E+00 0.000000000E+00 9.000000000E+00 3.411200047E-01 2.000000030E-01 1.500000000E+01
 1.000000000E+00 1.000000000E+00 0.000000000E+00 3.000000000E+00 5.627091527E-01 2.000000030E-01 4.000000000E+00
 1.000000000E+00 2.000000000E+00 0.000000000E+00 6.000000000E+00 5.993559361E-01 2.000000030E-01 9.000000000E+00
 1.500000000E+00 2.000000000E+00 0.000000000E+00 7.000000000E+00 7.846859843E-02 -2.000000030E-01 8.500000000E+00
 1.500000000E+00 3.000000000E+00 0.000000000E+00 1.200000000E+01 2.412987500E-02 -2.000000030E-01 1.350000000E+01
 2.500000000E+00 1.000000000E+00 0.000000000E+00 6.000000000E+00 -8.343678117E-01 -2.000000030E-01 2.500000000E+00
 2.500000000E+00 2.000000000E+00 0.000000000E+00 9.000000000E+00 -8.887065649E-01 -2.000000030E-01 7.500000000E+00
 4.500000000E+00 2.000000000E+00 0.000000000E+00 1.300000000E+01 -2.338352352E-01 -2.000000030E-01 5.500000000E+00
 4.500000000E+00 3.000000000E+00 0.000000000E+00 1.800000000E+01 -7.190666348E-02 -2.000000030E-01 1.050000000E+01
 5.000000000E+00 0.000000000E+00 0.000000000E+00 1.000000000E+01 5.673243850E-02 2.000000030E-01 -5.000000000E+00
 5.000000000E+00 1.000000000E+00 0.000000000E+00 1.100000000E+01 2.954259217E-01 2.000000030E-01 0.000000000E+00
 5.000000000E+00 3.000000000E+00 0.000000000E+00 1.900000000E+01 9.676284343E-02 2.000000030E-01 1.000000000E+01
 3 6 4
 4 6 8
 8 6 7
 8 7 10
 10 12 8
 10 11 12
 12 11 15
 15 11 14
 3 2 6
 6 2 5
 5 7 6
 5 9 7
 7 9 10
 10 9 11
 11 9 14
 1 5 2
 1 9 5
 1 13 9
 9 13 14
